TITLE = "plot"
VARIABLES = "X","Y","U","V","error"
ZONE I=250, J=50, F=POINT
0.000000000000000000e+00	0.000000000000000000e+00	-9.254088997840881348e-02	4.149271175265312195e-02	5.201385542750358582e-02
1.004016064257028162e+00	0.000000000000000000e+00	-6.894261389970779419e-02	2.951856143772602081e-02	2.280583605170249939e-02
2.008032128514056325e+00	0.000000000000000000e+00	-4.025536775588989258e-02	8.831284940242767334e-04	2.290150523185729980e-02
3.012048192771084487e+00	0.000000000000000000e+00	-4.233386367559432983e-02	-5.864836275577545166e-03	2.904947102069854736e-02
4.016064257028112650e+00	0.000000000000000000e+00	-4.277957230806350708e-02	-1.028865575790405273e-02	3.348815441131591797e-02
5.020080321285140812e+00	0.000000000000000000e+00	-3.894146531820297241e-02	-1.342870295047760010e-03	3.852296248078346252e-02
6.024096385542168974e+00	0.000000000000000000e+00	-3.977251797914505005e-02	-1.486019045114517212e-02	3.845097124576568604e-02
7.028112449799197137e+00	0.000000000000000000e+00	-4.249670356512069702e-02	-1.120263338088989258e-02	3.938712924718856812e-02
8.032128514056225299e+00	0.000000000000000000e+00	-4.178767651319503784e-02	-8.537545800209045410e-03	4.275885596871376038e-02
9.036144578313253461e+00	0.000000000000000000e+00	-4.373469948768615723e-02	-7.677115499973297119e-03	4.325353726744651794e-02
1.004016064257028162e+01	0.000000000000000000e+00	-4.538185894489288330e-02	-1.522376388311386108e-02	4.259311407804489136e-02
1.104417670682730979e+01	0.000000000000000000e+00	-4.639509320259094238e-02	-6.059378385543823242e-03	4.729329794645309448e-02
1.204819277108433795e+01	0.000000000000000000e+00	-4.756352305412292480e-02	-1.442234218120574951e-02	4.899527505040168762e-02
1.305220883534136611e+01	0.000000000000000000e+00	-4.820299893617630005e-02	-8.791450411081314087e-03	5.542730912566184998e-02
1.405622489959839427e+01	0.000000000000000000e+00	-4.889438301324844360e-02	-1.027444005012512207e-02	6.137751042842864990e-02
1.506024096385542244e+01	0.000000000000000000e+00	-4.937171190977096558e-02	-4.190165549516677856e-03	6.179053708910942078e-02
1.606425702811245060e+01	0.000000000000000000e+00	-4.908663034439086914e-02	-2.938754856586456299e-03	7.022626698017120361e-02
1.706827309236948054e+01	0.000000000000000000e+00	-4.956033080816268921e-02	6.918903440237045288e-03	7.817918062210083008e-02
1.807228915662650692e+01	0.000000000000000000e+00	-4.993806779384613037e-02	1.867870613932609558e-02	8.358509838581085205e-02
1.907630522088353331e+01	0.000000000000000000e+00	-4.846686869859695435e-02	1.091563701629638672e-02	9.471539407968521118e-02
2.008032128514056325e+01	0.000000000000000000e+00	-4.835054278373718262e-02	-6.822720170021057129e-04	1.009442657232284546e-01
2.108433734939759319e+01	0.000000000000000000e+00	-4.865146428346633911e-02	-4.766577482223510742e-02	9.386651217937469482e-02
2.208835341365461957e+01	0.000000000000000000e+00	-4.415370523929595947e-02	-8.321163058280944824e-02	8.487368375062942505e-02
2.309236947791164596e+01	0.000000000000000000e+00	-4.576273262500762939e-02	-1.238212883472442627e-01	8.453953266143798828e-02
2.409638554216867590e+01	0.000000000000000000e+00	-4.325166344642639160e-02	-1.683136820793151855e-01	8.062720298767089844e-02
2.510040160642570584e+01	0.000000000000000000e+00	-3.666310757398605347e-02	-1.307653486728668213e-01	1.183513551950454712e-01
2.610441767068273222e+01	0.000000000000000000e+00	-3.830785304307937622e-02	-1.417619884014129639e-01	9.882979094982147217e-02
2.710843373493975861e+01	0.000000000000000000e+00	-3.561901301145553589e-02	-5.950120091438293457e-02	1.704946905374526978e-01
2.811244979919678855e+01	0.000000000000000000e+00	-2.579363435506820679e-02	-6.894180178642272949e-02	1.661042571067810059e-01
2.911646586345381849e+01	0.000000000000000000e+00	-1.554393768310546875e-02	-1.599136739969253540e-02	2.155942171812057495e-01
3.012048192771084487e+01	0.000000000000000000e+00	-1.529349386692047119e-02	-2.906890958547592163e-02	1.980106830596923828e-01
3.112449799196787126e+01	0.000000000000000000e+00	-7.570199668407440186e-03	-1.397074013948440552e-02	2.019914835691452026e-01
3.212851405622490120e+01	0.000000000000000000e+00	-7.866181433200836182e-03	-2.149248868227005005e-02	1.949946284294128418e-01
3.313253012048193114e+01	0.000000000000000000e+00	-3.405973315238952637e-03	-7.706072181463241577e-03	1.950832158327102661e-01
3.413654618473896107e+01	0.000000000000000000e+00	-3.392018377780914307e-03	-2.217708528041839600e-02	1.659255772829055786e-01
3.514056224899598391e+01	0.000000000000000000e+00	-1.015217602252960205e-02	-9.681925177574157715e-03	1.743317991495132446e-01
3.614457831325301385e+01	0.000000000000000000e+00	-6.214246153831481934e-03	-1.812122017145156860e-02	1.546587646007537842e-01
3.714859437751004378e+01	0.000000000000000000e+00	-5.604080855846405029e-03	-5.551215261220932007e-03	1.659278124570846558e-01
3.815261044176706662e+01	0.000000000000000000e+00	-1.892402768135070801e-03	-1.916264742612838745e-02	1.412561237812042236e-01
3.915662650602409656e+01	0.000000000000000000e+00	-2.927824854850769043e-03	-9.099859744310379028e-03	1.390287876129150391e-01
4.016064257028112650e+01	0.000000000000000000e+00	1.160286366939544678e-03	-1.457314193248748779e-02	1.339688003063201904e-01
4.116465863453815643e+01	0.000000000000000000e+00	3.801733255386352539e-04	-3.686089068651199341e-03	1.342685669660568237e-01
4.216867469879518637e+01	0.000000000000000000e+00	3.917150199413299561e-03	-1.924110949039459229e-02	1.183384060859680176e-01
4.317269076305220921e+01	0.000000000000000000e+00	2.177402377128601074e-03	-5.319841206073760986e-03	1.227703839540481567e-01
4.417670682730923915e+01	0.000000000000000000e+00	7.607869803905487061e-03	-1.687816530466079712e-02	1.015336439013481140e-01
4.518072289156626908e+01	0.000000000000000000e+00	3.027603030204772949e-03	-6.237354129552841187e-03	1.131138876080513000e-01
4.618473895582329192e+01	0.000000000000000000e+00	1.122046262025833130e-02	-9.412754327058792114e-03	9.775389730930328369e-02
4.718875502008032186e+01	0.000000000000000000e+00	6.117083132266998291e-03	-1.112112402915954590e-02	9.274938702583312988e-02
4.819277108433735179e+01	0.000000000000000000e+00	1.344361156225204468e-02	-4.569180309772491455e-03	9.124295413494110107e-02
4.919678714859438173e+01	0.000000000000000000e+00	9.529970586299896240e-03	-5.168840289115905762e-03	8.822076767683029175e-02
5.020080321285141167e+01	0.000000000000000000e+00	1.434373110532760620e-02	-7.514633238315582275e-03	8.286925405263900757e-02
5.120481927710843451e+01	0.000000000000000000e+00	1.079265028238296509e-02	-7.601127028465270996e-03	7.997176051139831543e-02
5.220883534136546444e+01	0.000000000000000000e+00	1.498783379793167114e-02	-2.251230180263519287e-03	7.254716008901596069e-02
5.321285140562249438e+01	0.000000000000000000e+00	1.115264743566513062e-02	-3.912400454282760620e-03	7.588413357734680176e-02
5.421686746987951722e+01	0.000000000000000000e+00	1.624462753534317017e-02	-3.835756331682205200e-03	6.591227650642395020e-02
5.522088353413654715e+01	0.000000000000000000e+00	1.337321847677230835e-02	-7.155280560255050659e-03	6.743651628494262695e-02
5.622489959839357709e+01	0.000000000000000000e+00	1.685761660337448120e-02	1.586303114891052246e-03	6.090861558914184570e-02
5.722891566265060703e+01	0.000000000000000000e+00	1.044959574937820435e-02	-4.171524196863174438e-03	6.214639544486999512e-02
5.823293172690763697e+01	0.000000000000000000e+00	1.399708539247512817e-02	-1.421000808477401733e-03	5.932883545756340027e-02
5.923694779116465980e+01	0.000000000000000000e+00	8.613623678684234619e-03	-5.880534648895263672e-03	5.884567275643348694e-02
6.024096385542168974e+01	0.000000000000000000e+00	9.509421885013580322e-03	3.036171197891235352e-03	5.929285287857055664e-02
6.124497991967871968e+01	0.000000000000000000e+00	3.127798438072204590e-03	-2.569183707237243652e-03	6.143575534224510193e-02
6.224899598393574252e+01	0.000000000000000000e+00	5.855523049831390381e-03	1.062761992216110229e-03	5.608104914426803589e-02
6.325301204819277245e+01	0.000000000000000000e+00	3.492981195449829102e-04	-3.843307495117187500e-03	5.817308649420738220e-02
6.425702811244980239e+01	0.000000000000000000e+00	6.834715604782104492e-04	4.498399794101715088e-03	5.436234921216964722e-02
6.526104417670683233e+01	0.000000000000000000e+00	-5.569152534008026123e-03	-2.935726195573806763e-03	4.978598281741142273e-02
6.626506024096386227e+01	0.000000000000000000e+00	-5.057819187641143799e-03	2.167694270610809326e-03	5.057876557111740112e-02
6.726907630522089221e+01	0.000000000000000000e+00	-9.168788790702819824e-03	-3.056976944208145142e-03	4.379972815513610840e-02
6.827309236947792215e+01	0.000000000000000000e+00	-8.194886147975921631e-03	3.305021673440933228e-03	4.462845623493194580e-02
6.927710843373493788e+01	0.000000000000000000e+00	-1.217514276504516602e-02	-1.893434673547744751e-03	3.865371271967887878e-02
7.028112449799196781e+01	0.000000000000000000e+00	-1.670158654451370239e-02	1.966498792171478271e-03	3.172871097922325134e-02
7.128514056224899775e+01	0.000000000000000000e+00	-1.520846784114837646e-02	-3.438495099544525146e-03	3.295334056019783020e-02
7.228915662650602769e+01	0.000000000000000000e+00	-1.423744857311248779e-02	2.469457685947418213e-03	3.169048577547073364e-02
7.329317269076305763e+01	0.000000000000000000e+00	-1.506181061267852783e-02	-2.632699906826019287e-03	3.085034340620040894e-02
7.429718875502008757e+01	0.000000000000000000e+00	-1.773132383823394775e-02	8.546859025955200195e-04	2.599626407027244568e-02
7.530120481927711751e+01	0.000000000000000000e+00	-1.660708338022232056e-02	-4.281185567378997803e-03	2.421920001506805420e-02
7.630522088353413324e+01	0.000000000000000000e+00	-1.786752790212631226e-02	1.792408525943756104e-03	2.341203019022941589e-02
7.730923694779116317e+01	0.000000000000000000e+00	-1.584823429584503174e-02	-3.060642629861831665e-03	2.286441996693611145e-02
7.831325301204819311e+01	0.000000000000000000e+00	-1.779144257307052612e-02	-2.998709678649902344e-04	2.121151797473430634e-02
7.931726907630522305e+01	0.000000000000000000e+00	-1.531618833541870117e-02	-4.367839545011520386e-03	2.072908915579319000e-02
8.032128514056225299e+01	0.000000000000000000e+00	-1.799833774566650391e-02	-1.168772578239440918e-04	1.632182486355304718e-02
8.132530120481928293e+01	0.000000000000000000e+00	-1.434875279664993286e-02	-5.660887807607650757e-03	1.889548450708389282e-02
8.232931726907631287e+01	0.000000000000000000e+00	-1.642457395792007446e-02	-3.743905574083328247e-03	1.515160873532295227e-02
8.333333333333334281e+01	0.000000000000000000e+00	-1.318310201168060303e-02	-7.273420691490173340e-03	1.461962144821882248e-02
8.433734939759037275e+01	0.000000000000000000e+00	-1.718413084745407104e-02	-4.303798079490661621e-03	1.196119375526905060e-02
8.534136546184738847e+01	0.000000000000000000e+00	-1.295040547847747803e-02	-8.344750851392745972e-03	1.192692760378122330e-02
8.634538152610441841e+01	0.000000000000000000e+00	-1.563844084739685059e-02	-7.228869944810867310e-03	1.010463759303092957e-02
8.734939759036144835e+01	0.000000000000000000e+00	-1.202551275491714478e-02	-8.821960538625717163e-03	9.997106157243251801e-03
8.835341365461847829e+01	0.000000000000000000e+00	-1.594607532024383545e-02	-7.605385035276412964e-03	4.634097218513488770e-03
8.935742971887550823e+01	0.000000000000000000e+00	-1.211597770452499390e-02	-1.151045411825180054e-02	5.589095875620841980e-03
9.036144578313253817e+01	0.000000000000000000e+00	-1.493613421916961670e-02	-9.888395667076110840e-03	1.365732401609420776e-03
9.136546184738956811e+01	0.000000000000000000e+00	-1.124202460050582886e-02	-1.256707310676574707e-02	2.416906878352165222e-03
9.236947791164658383e+01	0.000000000000000000e+00	-1.509762555360794067e-02	-1.156593859195709229e-02	3.291044384241104126e-03
9.337349397590361377e+01	0.000000000000000000e+00	-1.204282790422439575e-02	-1.477146893739700317e-02	7.138759829103946686e-03
9.437751004016064371e+01	0.000000000000000000e+00	-1.454381644725799561e-02	-1.271487027406692505e-02	7.398410700261592865e-03
9.538152610441767365e+01	0.000000000000000000e+00	-1.071953773498535156e-02	-1.552198082208633423e-02	1.092028338462114334e-02
9.638554216867470359e+01	0.000000000000000000e+00	-1.424253731966018677e-02	-1.353567838668823242e-02	1.455090381205081940e-02
9.738955823293173353e+01	0.000000000000000000e+00	-1.134108752012252808e-02	-1.871929317712783813e-02	1.678918302059173584e-02
9.839357429718876347e+01	0.000000000000000000e+00	-1.385740190744400024e-02	-1.509615778923034668e-02	1.673211716115474701e-02
9.939759036144579341e+01	0.000000000000000000e+00	-9.901009500026702881e-03	-1.987197250127792358e-02	1.844205148518085480e-02
1.004016064257028233e+02	0.000000000000000000e+00	-1.321292668581008911e-02	-1.709352433681488037e-02	1.831122301518917084e-02
1.014056224899598391e+02	0.000000000000000000e+00	-1.054044812917709351e-02	-2.188958972692489624e-02	2.113975957036018372e-02
1.024096385542168690e+02	0.000000000000000000e+00	-1.300146430730819702e-02	-1.812067627906799316e-02	1.914699003100395203e-02
1.034136546184738989e+02	0.000000000000000000e+00	-9.148396551609039307e-03	-2.314016968011856079e-02	2.182506583631038666e-02
1.044176706827309289e+02	0.000000000000000000e+00	-1.251775026321411133e-02	-1.918232440948486328e-02	1.984748989343643188e-02
1.054216867469879588e+02	0.000000000000000000e+00	-1.005779951810836792e-02	-2.582139521837234497e-02	2.475601434707641602e-02
1.064257028112449888e+02	0.000000000000000000e+00	-1.245754212141036987e-02	-2.071260660886764526e-02	2.133658714592456818e-02
1.074297188755020187e+02	0.000000000000000000e+00	-8.725419640541076660e-03	-2.707997709512710571e-02	2.561728283762931824e-02
1.084337349397590344e+02	0.000000000000000000e+00	-1.197778433561325073e-02	-2.261671423912048340e-02	2.289263345301151276e-02
1.094377510040160644e+02	0.000000000000000000e+00	-9.551718831062316895e-03	-2.875313162803649902e-02	2.759814448654651642e-02
1.104417670682730943e+02	0.000000000000000000e+00	-1.191593706607818604e-02	-2.375156432390213013e-02	2.401200868189334869e-02
1.114457831325301242e+02	0.000000000000000000e+00	-7.992319762706756592e-03	-2.974250167608261108e-02	2.837625332176685333e-02
1.124497991967871542e+02	0.000000000000000000e+00	-1.129517704248428345e-02	-2.485939860343933105e-02	2.488377317786216736e-02
1.134538152610441841e+02	0.000000000000000000e+00	-8.875779807567596436e-03	-3.172686696052551270e-02	3.065978921949863434e-02
1.144578313253012141e+02	0.000000000000000000e+00	-1.127689331769943237e-02	-2.659750729799270630e-02	2.672898769378662109e-02
1.154618473895582440e+02	0.000000000000000000e+00	-7.333494722843170166e-03	-3.286513686180114746e-02	3.151300922036170959e-02
1.164658634538152739e+02	0.000000000000000000e+00	-1.067442446947097778e-02	-2.840983122587203979e-02	2.829823270440101624e-02
1.174698795180722897e+02	0.000000000000000000e+00	-8.357703685760498047e-03	-3.428305685520172119e-02	3.323632851243019104e-02
1.184738955823293196e+02	0.000000000000000000e+00	-1.068983972072601318e-02	-2.954582124948501587e-02	2.945700660347938538e-02
1.194779116465863495e+02	0.000000000000000000e+00	-6.843641400337219238e-03	-3.547022491693496704e-02	3.422083705663681030e-02
1.204819277108433795e+02	0.000000000000000000e+00	-1.030319929122924805e-02	-3.044553101062774658e-02	3.023809567093849182e-02
1.214859437751004094e+02	0.000000000000000000e+00	-7.946722209453582764e-03	-3.727772831916809082e-02	3.623833879828453064e-02
1.224899598393574394e+02	0.000000000000000000e+00	-1.012592017650604248e-02	-3.226299583911895752e-02	3.193771466612815857e-02
1.234939759036144693e+02	0.000000000000000000e+00	-6.440751254558563232e-03	-3.851075470447540283e-02	3.715626895427703857e-02
1.244979919678714850e+02	0.000000000000000000e+00	-9.871490299701690674e-03	-3.399404138326644897e-02	3.345864266157150269e-02
1.255020080321285150e+02	0.000000000000000000e+00	-7.608145475387573242e-03	-4.013794660568237305e-02	3.891296684741973877e-02
1.265060240963855449e+02	0.000000000000000000e+00	-9.655594825744628906e-03	-3.518734127283096313e-02	3.446190059185028076e-02
1.275100401606425748e+02	0.000000000000000000e+00	-6.256617605686187744e-03	-4.156055301427841187e-02	4.000268504023551941e-02
1.285140562248996048e+02	0.000000000000000000e+00	-9.655617177486419678e-03	-3.642479330301284790e-02	3.553780913352966309e-02
1.295180722891566347e+02	0.000000000000000000e+00	-7.379077374935150146e-03	-4.329660534858703613e-02	4.162679612636566162e-02
1.305220883534136647e+02	0.000000000000000000e+00	-9.245790541172027588e-03	-3.801266849040985107e-02	3.682681545615196228e-02
1.315261044176706946e+02	0.000000000000000000e+00	-6.123743951320648193e-03	-4.478915035724639893e-02	4.273789376020431519e-02
1.325301204819277245e+02	0.000000000000000000e+00	-9.403087198734283447e-03	-4.044486582279205322e-02	3.886881843209266663e-02
1.335341365461847545e+02	0.000000000000000000e+00	-7.124155759811401367e-03	-4.668267816305160522e-02	4.456841945648193359e-02
1.345381526104417844e+02	0.000000000000000000e+00	-8.832782506942749023e-03	-4.158122837543487549e-02	3.965457156300544739e-02
1.355421686746988144e+02	0.000000000000000000e+00	-5.967333912849426270e-03	-4.782808572053909302e-02	4.534446448087692261e-02
1.365461847389558443e+02	0.000000000000000000e+00	-9.179763495922088623e-03	-4.368553310632705688e-02	4.157855734229087830e-02
1.375502008032128458e+02	0.000000000000000000e+00	-6.873041391372680664e-03	-4.861982166767120361e-02	4.584127664566040039e-02
1.385542168674698758e+02	0.000000000000000000e+00	-8.535161614418029785e-03	-4.442081600427627563e-02	4.197143390774726868e-02
1.395582329317269057e+02	0.000000000000000000e+00	-5.628243088722229004e-03	-4.990677535533905029e-02	4.676770046353340149e-02
1.405622489959839356e+02	0.000000000000000000e+00	-8.736506104469299316e-03	-4.606039077043533325e-02	4.342618584632873535e-02
1.415662650602409656e+02	0.000000000000000000e+00	-6.479352712631225586e-03	-5.114486813545227051e-02	4.792621359229087830e-02
1.425702811244979955e+02	0.000000000000000000e+00	-8.078254759311676025e-03	-4.704996943473815918e-02	4.396960884332656860e-02
1.435742971887550254e+02	0.000000000000000000e+00	-5.202844738960266113e-03	-5.229537189006805420e-02	4.878472909331321716e-02
1.445783132530120554e+02	0.000000000000000000e+00	-8.294865489006042480e-03	-4.843953996896743774e-02	4.527213424444198608e-02
1.455823293172690853e+02	0.000000000000000000e+00	-5.935870110988616943e-03	-5.353991687297821045e-02	4.999547079205513000e-02
1.465863453815261153e+02	0.000000000000000000e+00	-7.562197744846343994e-03	-4.880225658416748047e-02	4.546457901597023010e-02
1.475903614457831452e+02	0.000000000000000000e+00	-4.682637751102447510e-03	-5.435495823621749878e-02	5.066335946321487427e-02
1.485943775100401751e+02	0.000000000000000000e+00	-7.732793688774108887e-03	-5.041666328907012939e-02	4.711330682039260864e-02
1.495983935742972051e+02	0.000000000000000000e+00	-5.407407879829406738e-03	-5.524054914712905884e-02	5.170999839901924133e-02
1.506024096385542350e+02	0.000000000000000000e+00	-7.106110453605651855e-03	-5.141592025756835938e-02	4.828473925590515137e-02
1.516064257028112650e+02	0.000000000000000000e+00	-4.259355366230010986e-03	-5.612105876207351685e-02	5.266254022717475891e-02
1.526104417670682665e+02	0.000000000000000000e+00	-7.270760834217071533e-03	-5.264291912317276001e-02	4.953316226601600647e-02
1.536144578313252964e+02	0.000000000000000000e+00	-4.913210868835449219e-03	-5.729471147060394287e-02	5.389549955725669861e-02
1.546184738955823263e+02	0.000000000000000000e+00	-6.512604653835296631e-03	-5.300529301166534424e-02	4.990317299962043762e-02
1.556224899598393563e+02	0.000000000000000000e+00	-3.699898719787597656e-03	-5.835127830505371094e-02	5.537123978137969971e-02
1.566265060240963862e+02	0.000000000000000000e+00	-6.540164351463317871e-03	-5.472011864185333252e-02	5.201235413551330566e-02
1.576305220883534162e+02	0.000000000000000000e+00	-4.365757107734680176e-03	-5.992645770311355591e-02	5.733891949057579041e-02
1.586345381526104461e+02	0.000000000000000000e+00	-5.887717008590698242e-03	-5.586034059524536133e-02	5.342341214418411255e-02
1.596385542168674760e+02	0.000000000000000000e+00	-3.201059997081756592e-03	-6.118597090244293213e-02	5.877063423395156860e-02
1.606425702811245060e+02	0.000000000000000000e+00	-5.911961197853088379e-03	-5.743022263050079346e-02	5.540978163480758667e-02
1.616465863453815359e+02	0.000000000000000000e+00	-3.769829869270324707e-03	-6.338472664356231689e-02	6.117279827594757080e-02
1.626506024096385659e+02	0.000000000000000000e+00	-5.290500819683074951e-03	-5.838104337453842163e-02	5.620246008038520813e-02
1.636546184738955958e+02	0.000000000000000000e+00	-2.669341862201690674e-03	-6.398393213748931885e-02	6.162178143858909607e-02
1.646586345381526257e+02	0.000000000000000000e+00	-5.207024514675140381e-03	-6.039179116487503052e-02	5.797870829701423645e-02
1.656626506024096557e+02	0.000000000000000000e+00	-3.185607492923736572e-03	-6.607265770435333252e-02	6.614940613508224487e-02
1.666666666666666856e+02	0.000000000000000000e+00	-4.838995635509490967e-03	-6.114005297422409058e-02	6.133124604821205139e-02
1.676706827309237156e+02	0.000000000000000000e+00	-2.197563648223876953e-03	-6.733269989490509033e-02	6.736855208873748779e-02
1.686746987951807455e+02	0.000000000000000000e+00	-4.618011415004730225e-03	-6.298238039016723633e-02	6.315145641565322876e-02
1.696787148594377470e+02	0.000000000000000000e+00	-2.748668193817138672e-03	-6.888466328382492065e-02	6.827674806118011475e-02
1.706827309236947769e+02	0.000000000000000000e+00	-4.230447113513946533e-03	-6.346635520458221436e-02	6.232735142111778259e-02
1.716867469879518069e+02	0.000000000000000000e+00	-1.801386475563049316e-03	-6.937572360038757324e-02	6.755729019641876221e-02
1.726907630522088368e+02	0.000000000000000000e+00	-4.228979349136352539e-03	-6.522308290004730225e-02	6.307708472013473511e-02
1.736947791164658668e+02	0.000000000000000000e+00	-2.428211271762847900e-03	-7.051099836826324463e-02	6.796526163816452026e-02
1.746987951807228967e+02	0.000000000000000000e+00	-3.728255629539489746e-03	-6.611078977584838867e-02	6.345476210117340088e-02
1.757028112449799266e+02	0.000000000000000000e+00	-1.568213105201721191e-03	-7.216563820838928223e-02	6.942161172628402710e-02
1.767068273092369566e+02	0.000000000000000000e+00	-3.870546817779541016e-03	-6.787951290607452393e-02	6.517370790243148804e-02
1.777108433734939865e+02	0.000000000000000000e+00	-2.124667167663574219e-03	-7.321719080209732056e-02	7.048491388559341431e-02
1.787148594377510165e+02	0.000000000000000000e+00	-3.380447626113891602e-03	-6.828467547893524170e-02	6.575020402669906616e-02
1.797188755020080464e+02	0.000000000000000000e+00	-1.189723610877990723e-03	-7.395690679550170898e-02	7.156214863061904907e-02
1.807228915662650763e+02	0.000000000000000000e+00	-3.383070230484008789e-03	-6.993333995342254639e-02	6.787278503179550171e-02
1.817269076305221063e+02	0.000000000000000000e+00	-1.684710383415222168e-03	-7.515068352222442627e-02	7.302723079919815063e-02
1.827309236947791362e+02	0.000000000000000000e+00	-2.974048256874084473e-03	-7.082774490118026733e-02	6.903728842735290527e-02
1.837349397590361662e+02	0.000000000000000000e+00	-7.554367184638977051e-04	-7.677181065082550049e-02	7.520861178636550903e-02
1.847389558232931677e+02	0.000000000000000000e+00	-3.007233142852783203e-03	-7.229625433683395386e-02	7.099255174398422241e-02
1.857429718875501976e+02	0.000000000000000000e+00	-1.214429736137390137e-03	-7.768973708152770996e-02	7.634312659502029419e-02
1.867469879518072275e+02	0.000000000000000000e+00	-2.512641251087188721e-03	-7.254137098789215088e-02	7.122877240180969238e-02
1.877510040160642575e+02	0.000000000000000000e+00	-2.255961298942565918e-04	-7.821746170520782471e-02	7.675641775131225586e-02
1.887550200803212874e+02	0.000000000000000000e+00	-2.530142664909362793e-03	-7.401566207408905029e-02	7.250056415796279907e-02
1.897590361445783174e+02	0.000000000000000000e+00	-6.683841347694396973e-04	-7.898564636707305908e-02	7.734920829534530640e-02
1.907630522088353473e+02	0.000000000000000000e+00	-2.026326954364776611e-03	-7.492871582508087158e-02	7.323590666055679321e-02
1.917670682730923772e+02	0.000000000000000000e+00	3.150850534439086914e-04	-8.025005459785461426e-02	7.844632118940353394e-02
1.927710843373494072e+02	0.000000000000000000e+00	-2.121590077877044678e-03	-7.610425353050231934e-02	7.432946562767028809e-02
1.937751004016064371e+02	0.000000000000000000e+00	-1.845583319664001465e-04	-8.100758492946624756e-02	7.910650223493576050e-02
1.947791164658634671e+02	0.000000000000000000e+00	-1.566343009471893311e-03	-7.643584907054901123e-02	7.442650943994522095e-02
1.957831325301204970e+02	0.000000000000000000e+00	8.326172828674316406e-04	-8.117903769016265869e-02	7.899313420057296753e-02
1.967871485943775269e+02	0.000000000000000000e+00	-1.684255897998809814e-03	-7.754321396350860596e-02	7.515723258256912231e-02
1.977911646586345569e+02	0.000000000000000000e+00	2.980679273605346680e-04	-8.263921737670898438e-02	8.023548126220703125e-02
1.987951807228915868e+02	0.000000000000000000e+00	-1.158595085144042969e-03	-7.832083106040954590e-02	7.565795630216598511e-02
1.997991967871486167e+02	0.000000000000000000e+00	1.288652420043945312e-03	-8.304837346076965332e-02	8.006407320499420166e-02
2.008032128514056467e+02	0.000000000000000000e+00	-1.351170241832733154e-03	-7.960812747478485107e-02	7.624300569295883179e-02
2.018072289156626482e+02	0.000000000000000000e+00	7.101222872734069824e-04	-8.460390567779541016e-02	8.079431951045989990e-02
2.028112449799196781e+02	0.000000000000000000e+00	-7.950961589813232422e-04	-8.022229373455047607e-02	7.592982053756713867e-02
2.038152610441767081e+02	0.000000000000000000e+00	1.711241900920867920e-03	-8.472968637943267822e-02	8.045054972171783447e-02
2.048192771084337380e+02	0.000000000000000000e+00	-9.637996554374694824e-04	-8.124357461929321289e-02	7.641835510730743408e-02
2.058232931726907680e+02	0.000000000000000000e+00	1.094169914722442627e-03	-8.655440807342529297e-02	8.114437013864517212e-02
2.068273092369477979e+02	0.000000000000000000e+00	-4.537701606750488281e-04	-8.233809471130371094e-02	7.628469914197921753e-02
2.078313253012048278e+02	0.000000000000000000e+00	2.025291323661804199e-03	-8.694647252559661865e-02	8.022909611463546753e-02
2.088353413654618578e+02	0.000000000000000000e+00	-6.876289844512939453e-04	-8.344493806362152100e-02	7.670680433511734009e-02
2.098393574297188877e+02	0.000000000000000000e+00	1.377649605274200439e-03	-8.858615159988403320e-02	8.110457658767700195e-02
2.108433734939759177e+02	0.000000000000000000e+00	-2.365335822105407715e-04	-8.456523716449737549e-02	7.621482759714126587e-02
2.118473895582329476e+02	0.000000000000000000e+00	2.338305115699768066e-03	-8.893738687038421631e-02	7.955596596002578735e-02
2.128514056224899775e+02	0.000000000000000000e+00	-3.922805190086364746e-04	-8.565726876258850098e-02	7.467018812894821167e-02
2.138554216867470075e+02	0.000000000000000000e+00	1.599557697772979736e-03	-9.080524742603302002e-02	7.745372503995895386e-02
2.148594377510040374e+02	0.000000000000000000e+00	-1.540854573249816895e-04	-8.688651025295257568e-02	7.352103292942047119e-02
2.158634538152610673e+02	0.000000000000000000e+00	2.535812556743621826e-03	-9.122093021869659424e-02	7.445780932903289795e-02
2.168674698795180689e+02	0.000000000000000000e+00	-3.792196512222290039e-04	-8.805835247039794922e-02	6.635548174381256104e-02
2.178714859437750988e+02	0.000000000000000000e+00	1.772314310073852539e-03	-9.301903843879699707e-02	6.380239129066467285e-02
2.188755020080321287e+02	0.000000000000000000e+00	-1.858472824096679688e-04	-8.923400938510894775e-02	4.902909696102142334e-02
2.198795180722891587e+02	0.000000000000000000e+00	2.633936703205108643e-03	-9.343621134757995605e-02	5.326822400093078613e-02
2.208835341365461886e+02	0.000000000000000000e+00	-4.228502511978149414e-04	-9.042821824550628662e-02	3.040061146020889282e-02
2.218875502008032186e+02	0.000000000000000000e+00	1.876689493656158447e-03	-9.513700008392333984e-02	8.643046021461486816e-03
2.228915662650602485e+02	0.000000000000000000e+00	-2.951323986053466797e-04	-9.160961210727691650e-02	6.999275088310241699e-02
2.238955823293172784e+02	0.000000000000000000e+00	2.580121159553527832e-03	-9.566627442836761475e-02	1.823969781398773193e-01
2.248995983935743084e+02	0.000000000000000000e+00	-4.955306649208068848e-04	-9.274871647357940674e-02	1.332077383995056152e+00
2.259036144578313383e+02	0.000000000000000000e+00	1.838244497776031494e-03	-9.730179607868194580e-02	4.914177417755126953e+00
2.269076305220883683e+02	0.000000000000000000e+00	-3.859624266624450684e-04	-9.389495849609375000e-02	6.882873773574829102e-01
2.279116465863453982e+02	0.000000000000000000e+00	2.479240298271179199e-03	-9.798665344715118408e-02	8.712027221918106079e-02
2.289156626506024281e+02	0.000000000000000000e+00	-5.747899413108825684e-04	-9.498415887355804443e-02	9.840406477451324463e-03
2.299196787148594581e+02	0.000000000000000000e+00	1.755148172378540039e-03	-9.955273568630218506e-02	3.638312965631484985e-02
2.309236947791164880e+02	0.000000000000000000e+00	-5.423054099082946777e-04	-9.619848430156707764e-02	5.325985327363014221e-02
2.319277108433735179e+02	0.000000000000000000e+00	2.289474010467529297e-03	-1.002807319164276123e-01	7.390858232975006104e-02
2.329317269076305479e+02	0.000000000000000000e+00	-8.535459637641906738e-04	-9.718737006187438965e-02	7.960143685340881348e-02
2.339357429718875494e+02	0.000000000000000000e+00	1.593008637428283691e-03	-1.017341315746307373e-01	9.004589915275573730e-02
2.349397590361445793e+02	0.000000000000000000e+00	-9.057521820068359375e-04	-9.842689335346221924e-02	9.033865481615066528e-02
2.359437751004016093e+02	0.000000000000000000e+00	1.929096877574920654e-03	-1.021988242864608765e-01	9.412463009357452393e-02